/*--------------------------------*- C++ -*----------------------------------*\																
  =========                 |																
  \\      /  F ield         | OpenFOAM: The Open Source CFD Toolbox																
   \\    /   O peration     | Website:  https://openfoam.org																
    \\  /    A nd           | Version:  7																
     \\/     M anipulation  |																
\*---------------------------------------------------------------------------*/																
FoamFile																
{																
    version     2.0;																
    format      ascii;																
    class       vectorField;																
    object      kinematicCloudPositions;																
}																
// * * * * * * * * * * * * * * * * * * * * * * * * * * * * * * * * * * * * * //																
																
(																
(-0.00143	0.001280	0.0001)														
(-0.00123	0.001290	0.0001)														
(-0.00104	0.001300	0.0001)														
(-0.00085	0.001310	0.0001)														
(-0.00065	0.001320	0.0001)														
(-0.00046	0.001330	0.0001)														
(-0.00027	0.001340	0.0001)														
(-0.00007	0.001350	0.0001)														
(0.00012	0.001360	0.0001)														
(0.00031	0.001370	0.0001)														
(0.00051	0.001380	0.0001)														
(0.0007	0.001390	0.0001)														
(0.00089	0.001400	0.0001)														
(0.00108	0.001410	0.0001)														
(0.00128	0.001430	0.0001)														
(-0.00141	0.001080	0.0001)														
(-0.00122	0.001100	0.0001)														
(-0.00103	0.001110	0.0001)														
(-0.00084	0.001120	0.0001)														
(-0.00064	0.001130	0.0001)														
(-0.00045	0.001140	0.0001)														
(-0.00026	0.001150	0.0001)														
(-0.00006	0.001160	0.0001)														
(0.00013	0.001170	0.0001)														
(0.00032	0.001180	0.0001)														
(0.00052	0.001190	0.0001)														
(0.00071	0.001200	0.0001)														
(0.0009	0.001210	0.0001)														
(0.0011	0.001220	0.0001)														
(0.00129	0.001230	0.0001)														
(-0.0014	0.000890	0.0001)														
(-0.00121	0.000900	0.0001)														
(-0.00102	0.000910	0.0001)														
(-0.00082	0.000920	0.0001)														
(-0.00063	0.000930	0.0001)														
(-0.00044	0.000940	0.0001)														
(-0.00025	0.000950	0.0001)														
(-0.00005	0.000970	0.0001)														
(0.00014	0.000980	0.0001)														
(0.00033	0.000990	0.0001)														
(0.00053	0.001000	0.0001)														
(0.00072	0.001010	0.0001)														
(0.00091	0.001020	0.0001)														
(0.00111	0.001030	0.0001)														
(0.0013	0.001040	0.0001)														
(-0.00139	0.000700	0.0001)														
(-0.0012	0.000710	0.0001)														
(-0.00101	0.000720	0.0001)														
(-0.00081	0.000730	0.0001)														
(-0.00062	0.000740	0.0001)														
(-0.00043	0.000750	0.0001)														
(-0.00024	0.000760	0.0001)														
(-0.00004	0.000770	0.0001)														
(0.00015	0.000780	0.0001)														
(0.00034	0.000790	0.0001)														
(0.00054	0.000800	0.0001)														
(0.00073	0.000810	0.0001)														
(0.00092	0.000820	0.0001)														
(0.00112	0.000840	0.0001)														
(0.00131	0.000850	0.0001)														
(-0.00138	0.000510	0.0001)														
(-0.00119	0.000520	0.0001)														
(-0.001	0.000530	0.0001)														
(-0.0008	0.000540	0.0001)														
(-0.00061	0.000550	0.0001)														
(-0.00042	0.000560	0.0001)														
(-0.00022	0.000570	0.0001)														
(-0.00003	0.000580	0.0001)														
(0.00016	0.000590	0.0001)														
(0.00035	0.000600	0.0001)														
(0.00055	0.000610	0.0001)														
(0.00074	0.000620	0.0001)														
(0.00093	0.000630	0.0001)														
(0.00113	0.000640	0.0001)														
(0.00132	0.000650	0.0001)														
(-0.00137	0.000310	0.0001)														
(-0.00118	0.000320	0.0001)														
(-0.00099	0.000330	0.0001)														
(-0.00079	0.000340	0.0001)														
(-0.0006	0.000350	0.0001)														
(-0.00041	0.000370	0.0001)														
(-0.00021	0.000380	0.0001)														
(-0.00002	0.000390	0.0001)														
(0.00017	0.000400	0.0001)														
(0.00037	0.000410	0.0001)														
(0.00056	0.000420	0.0001)														
(0.00075	0.000430	0.0001)														
(0.00094	0.000440	0.0001)														
(0.00114	0.000450	0.0001)														
(0.00133	0.000460	0.0001)														
(-0.00136	0.000120	0.0001)														
(-0.00117	0.000130	0.0001)														
(-0.00098	0.000140	0.0001)														
(-0.00078	0.000150	0.0001)														
(-0.00059	0.000160	0.0001)														
(-0.0004	0.000170	0.0001)														
(-0.0002	0.000180	0.0001)														
(-0.00001	0.000190	0.0001)														
(0.00018	0.000200	0.0001)														
(0.00038	0.000210	0.0001)														
(0.00057	0.000220	0.0001)														
(0.00076	0.000240	0.0001)														
(0.00095	0.000250	0.0001)														
(0.00115	0.000260	0.0001)														
(0.00134	0.000270	0.0001)														
(-0.00135	-0.000070	0.0001)														
(-0.00116	-0.000060	0.0001)														
(-0.00097	-0.000050	0.0001)														
(-0.00077	-0.000040	0.0001)														
(-0.00058	-0.000030	0.0001)														
(-0.00039	-0.000020	0.0001)														
(-0.00019	-0.000010	0.0001)														
(0	0.000000	0.0001)														
(0.00019	0.000010	0.0001)														
(0.00039	0.000020	0.0001)														
(0.00058	0.000030	0.0001)														
(0.00077	0.000040	0.0001)														
(0.00097	0.000050	0.0001)														
(0.00116	0.000060	0.0001)														
(0.00135	0.000070	0.0001)														
(-0.00134	-0.000270	0.0001)														
(-0.00115	-0.000260	0.0001)														
(-0.00095	-0.000250	0.0001)														
(-0.00076	-0.000240	0.0001)														
(-0.00057	-0.000220	0.0001)														
(-0.00038	-0.000210	0.0001)														
(-0.00018	-0.000200	0.0001)														
(0.00001	-0.000190	0.0001)														
(0.0002	-0.000180	0.0001)														
(0.0004	-0.000170	0.0001)														
(0.00059	-0.000160	0.0001)														
(0.00078	-0.000150	0.0001)														
(0.00098	-0.000140	0.0001)														
(0.00117	-0.000130	0.0001)														
(0.00136	-0.000120	0.0001)														
(-0.00133	-0.000460	0.0001)														
(-0.00114	-0.000450	0.0001)														
(-0.00094	-0.000440	0.0001)														
(-0.00075	-0.000430	0.0001)														
(-0.00056	-0.000420	0.0001)														
(-0.00037	-0.000410	0.0001)														
(-0.00017	-0.000400	0.0001)														
(0.00002	-0.000390	0.0001)														
(0.00021	-0.000380	0.0001)														
(0.00041	-0.000370	0.0001)														
(0.0006	-0.000350	0.0001)														
(0.00079	-0.000340	0.0001)														
(0.00099	-0.000330	0.0001)														
(0.00118	-0.000320	0.0001)														
(0.00137	-0.000310	0.0001)														
(-0.00132	-0.000650	0.0001)														
(-0.00113	-0.000640	0.0001)														
(-0.00093	-0.000630	0.0001)														
(-0.00074	-0.000620	0.0001)														
(-0.00055	-0.000610	0.0001)														
(-0.00035	-0.000600	0.0001)														
(-0.00016	-0.000590	0.0001)														
(0.00003	-0.000580	0.0001)														
(0.00022	-0.000570	0.0001)														
(0.00042	-0.000560	0.0001)														
(0.00061	-0.000550	0.0001)														
(0.0008	-0.000540	0.0001)														
(0.001	-0.000530	0.0001)														
(0.00119	-0.000520	0.0001)														
(0.00138	-0.000510	0.0001)														
(-0.00131	-0.000850	0.0001)														
(-0.00112	-0.000840	0.0001)														
(-0.00092	-0.000820	0.0001)														
(-0.00073	-0.000810	0.0001)														
(-0.00054	-0.000800	0.0001)														
(-0.00034	-0.000790	0.0001)														
(-0.00015	-0.000780	0.0001)														
(0.00004	-0.000770	0.0001)														
(0.00024	-0.000760	0.0001)														
(0.00043	-0.000750	0.0001)														
(0.00062	-0.000740	0.0001)														
(0.00081	-0.000730	0.0001)														
(0.00101	-0.000720	0.0001)														
(0.0012	-0.000710	0.0001)														
(0.00139	-0.000700	0.0001)														
(-0.0013	-0.001040	0.0001)														
(-0.00111	-0.001030	0.0001)														
(-0.00091	-0.001020	0.0001)														
(-0.00072	-0.001010	0.0001)														
(-0.00053	-0.001000	0.0001)														
(-0.00033	-0.000990	0.0001)														
(-0.00014	-0.000980	0.0001)														
(0.00005	-0.000970	0.0001)														
(0.00025	-0.000950	0.0001)														
(0.00044	-0.000940	0.0001)														
(0.00063	-0.000930	0.0001)														
(0.00082	-0.000920	0.0001)														
(0.00102	-0.000910	0.0001)														
(0.00121	-0.000900	0.0001)														
(0.0014	-0.000890	0.0001)														
(-0.00129	-0.001230	0.0001)														
(-0.0011	-0.001220	0.0001)														
(-0.0009	-0.001210	0.0001)														
(-0.00071	-0.001200	0.0001)														
(-0.00052	-0.001190	0.0001)														
(-0.00032	-0.001180	0.0001)														
(-0.00013	-0.001170	0.0001)														
(0.00006	-0.001160	0.0001)														
(0.00026	-0.001150	0.0001)														
(0.00045	-0.001140	0.0001)														
(0.00064	-0.001130	0.0001)														
(0.00084	-0.001120	0.0001)														
(0.00103	-0.001110	0.0001)														
(0.00122	-0.001100	0.0001)														
(0.00141	-0.001080	0.0001)														
(-0.00128	-0.001430	0.0001)														
(-0.00108	-0.001410	0.0001)														
(-0.00089	-0.001400	0.0001)														
(-0.0007	-0.001390	0.0001)														
(-0.00051	-0.001380	0.0001)														
(-0.00031	-0.001370	0.0001)														
(-0.00012	-0.001360	0.0001)														
(0.00007	-0.001350	0.0001)														
(0.00027	-0.001340	0.0001)														
(0.00046	-0.001330	0.0001)														
(0.00065	-0.001320	0.0001)														
(0.00085	-0.001310	0.0001)														
(0.00104	-0.001300	0.0001)														
(0.00123	-0.001290	0.0001)														
(0.00143	-0.001280	0.0001)														
(-0.00142	0.001280	0.0002)														
(-0.00123	0.001290	0.0002)														
(-0.00104	0.001300	0.0002)														
(-0.00084	0.001310	0.0002)														
(-0.00065	0.001320	0.0002)														
(-0.00046	0.001330	0.0002)														
(-0.00027	0.001340	0.0002)														
(-0.00007	0.001350	0.0002)														
(0.00012	0.001360	0.0002)														
(0.00031	0.001370	0.0002)														
(0.00051	0.001380	0.0002)														
(0.0007	0.001390	0.0002)														
(0.00089	0.001400	0.0002)														
(0.00109	0.001410	0.0002)														
(0.00128	0.001420	0.0002)														
(-0.00141	0.001090	0.0002)														
(-0.00122	0.001100	0.0002)														
(-0.00103	0.001110	0.0002)														
(-0.00083	0.001120	0.0002)														
(-0.00064	0.001130	0.0002)														
(-0.00045	0.001140	0.0002)														
(-0.00026	0.001150	0.0002)														
(-0.00006	0.001160	0.0002)														
(0.00013	0.001170	0.0002)														
(0.00032	0.001180	0.0002)														
(0.00052	0.001190	0.0002)														
(0.00071	0.001200	0.0002)														
(0.0009	0.001210	0.0002)														
(0.0011	0.001220	0.0002)														
(0.00129	0.001230	0.0002)														
(-0.0014	0.000890	0.0002)														
(-0.00121	0.000900	0.0002)														
(-0.00102	0.000910	0.0002)														
(-0.00082	0.000920	0.0002)														
(-0.00063	0.000930	0.0002)														
(-0.00044	0.000940	0.0002)														
(-0.00024	0.000950	0.0002)														
(-0.00005	0.000970	0.0002)														
(0.00014	0.000980	0.0002)														
(0.00033	0.000990	0.0002)														
(0.00053	0.001000	0.0002)														
(0.00072	0.001010	0.0002)														
(0.00091	0.001020	0.0002)														
(0.00111	0.001030	0.0002)														
(0.0013	0.001040	0.0002)														
(-0.00139	0.000700	0.0002)														
(-0.0012	0.000710	0.0002)														
(-0.00101	0.000720	0.0002)														
(-0.00081	0.000730	0.0002)														
(-0.00062	0.000740	0.0002)														
(-0.00043	0.000750	0.0002)														
(-0.00023	0.000760	0.0002)														
(-0.00004	0.000770	0.0002)														
(0.00015	0.000780	0.0002)														
(0.00034	0.000790	0.0002)														
(0.00054	0.000800	0.0002)														
(0.00073	0.000810	0.0002)														
(0.00092	0.000820	0.0002)														
(0.00112	0.000830	0.0002)														
(0.00131	0.000840	0.0002)														
(-0.00138	0.000510	0.0002)														
(-0.00119	0.000520	0.0002)														
(-0.001	0.000530	0.0002)														
(-0.0008	0.000540	0.0002)														
(-0.00061	0.000550	0.0002)														
(-0.00042	0.000560	0.0002)														
(-0.00022	0.000570	0.0002)														
(-0.00003	0.000580	0.0002)														
(0.00016	0.000590	0.0002)														
(0.00036	0.000600	0.0002)														
(0.00055	0.000610	0.0002)														
(0.00074	0.000620	0.0002)														
(0.00093	0.000630	0.0002)														
(0.00113	0.000640	0.0002)														
(0.00132	0.000650	0.0002)														
(-0.00137	0.00031	0.0002)														
(-0.00118	0.00032	0.0002)														
(-0.00099	0.00033	0.0002)														
(-0.00079	0.00034	0.0002)														
(-0.0006	0.00036	0.0002)														
(-0.00041	0.00037	0.0002)														
(-0.00021	0.00038	0.0002)														
(-0.00002	0.00039	0.0002)														
(0.00017	0.0004	0.0002)														
(0.00037	0.00041	0.0002)														
(0.00056	0.00042	0.0002)														
(0.00075	0.00043	0.0002)														
(0.00094	0.00044	0.0002)														
(0.00114	0.00045	0.0002)														
(0.00133	0.00046	0.0002)														
(-0.00136	0.00012	0.0002)														
(-0.00117	0.00013	0.0002)														
(-0.00098	0.00014	0.0002)														
(-0.00078	0.00015	0.0002)														
(-0.00059	0.00016	0.0002)														
(-0.0004	0.00017	0.0002)														
(-0.0002	0.00018	0.0002)														
(-0.00001	0.00019	0.0002)														
(0.00018	0.0002	0.0002)														
(0.00038	0.00021	0.0002)														
(0.00057	0.00022	0.0002)														
(0.00076	0.00023	0.0002)														
(0.00095	0.00024	0.0002)														
(0.00115	0.00026	0.0002)														
(0.00134	0.00027	0.0002)														
(-0.00135	-0.00007	0.0002)														
(-0.00116	-0.00006	0.0002)														
(-0.00097	-0.00005	0.0002)														
(-0.00077	-0.00004	0.0002)														
(-0.00058	-0.00003	0.0002)														
(-0.00039	-0.00002	0.0002)														
(-0.00019	-0.00001	0.0002)														
(0	0	0.0002)														
(0.00019	0.00001	0.0002)														
(0.00039	0.00002	0.0002)														
(0.00058	0.00003	0.0002)														
(0.00077	0.00004	0.0002)														
(0.00097	0.00005	0.0002)														
(0.00116	0.00006	0.0002)														
(0.00135	0.00007	0.0002)														
(-0.00134	-0.00027	0.0002)														
(-0.00115	-0.00026	0.0002)														
(-0.00095	-0.00024	0.0002)														
(-0.00076	-0.00023	0.0002)														
(-0.00057	-0.00022	0.0002)														
(-0.00038	-0.00021	0.0002)														
(-0.00018	-0.0002	0.0002)														
(0.00001	-0.00019	0.0002)														
(0.0002	-0.00018	0.0002)														
(0.0004	-0.00017	0.0002)														
(0.00059	-0.00016	0.0002)														
(0.00078	-0.00015	0.0002)														
(0.00098	-0.00014	0.0002)														
(0.00117	-0.00013	0.0002)														
(0.00136	-0.00012	0.0002)														
(-0.00133	-0.00046	0.0002)														
(-0.00114	-0.00045	0.0002)														
(-0.00094	-0.00044	0.0002)														
(-0.00075	-0.00043	0.0002)														
(-0.00056	-0.00042	0.0002)														
(-0.00037	-0.00041	0.0002)														
(-0.00017	-0.0004	0.0002)														
(0.00002	-0.00039	0.0002)														
(0.00021	-0.00038	0.0002)														
(0.00041	-0.00037	0.0002)														
(0.0006	-0.00036	0.0002)														
(0.00079	-0.00034	0.0002)														
(0.00099	-0.00033	0.0002)														
(0.00118	-0.00032	0.0002)														
(0.00137	-0.00031	0.0002)														
(-0.00132	-0.00065	0.0002)														
(-0.00113	-0.00064	0.0002)														
(-0.00093	-0.00063	0.0002)														
(-0.00074	-0.00062	0.0002)														
(-0.00055	-0.00061	0.0002)														
(-0.00036	-0.0006	0.0002)														
(-0.00016	-0.00059	0.0002)														
(0.00003	-0.00058	0.0002)														
(0.00022	-0.00057	0.0002)														
(0.00042	-0.00056	0.0002)														
(0.00061	-0.00055	0.0002)														
(0.0008	-0.00054	0.0002)														
(0.001	-0.00053	0.0002)														
(0.00119	-0.00052	0.0002)														
(0.00138	-0.00051	0.0002)														
(-0.00131	-0.00084	0.0002)														
(-0.00112	-0.00083	0.0002)														
(-0.00092	-0.00082	0.0002)														
(-0.00073	-0.00081	0.0002)														
(-0.00054	-0.0008	0.0002)														
(-0.00034	-0.00079	0.0002)														
(-0.00015	-0.00078	0.0002)														
(0.00004	-0.00077	0.0002)														
(0.00023	-0.00076	0.0002)														
(0.00043	-0.00075	0.0002)														
(0.00062	-0.00074	0.0002)														
(0.00081	-0.00073	0.0002)														
(0.00101	-0.00072	0.0002)														
(0.0012	-0.00071	0.0002)														
(0.00139	-0.0007	0.0002)														
(-0.0013	-0.00104	0.0002)														
(-0.00111	-0.00103	0.0002)														
(-0.00091	-0.00102	0.0002)														
(-0.00072	-0.00101	0.0002)														
(-0.00053	-0.001	0.0002)														
(-0.00033	-0.00099	0.0002)														
(-0.00014	-0.00098	0.0002)														
(0.00005	-0.00097	0.0002)														
(0.00024	-0.00095	0.0002)														
(0.00044	-0.00094	0.0002)														
(0.00063	-0.00093	0.0002)														
(0.00082	-0.00092	0.0002)														
(0.00102	-0.00091	0.0002)														
(0.00121	-0.0009	0.0002)														
(0.0014	-0.00089	0.0002)														
(-0.00129	-0.00123	0.0002)														
(-0.0011	-0.00122	0.0002)														
(-0.0009	-0.00121	0.0002)														
(-0.00071	-0.0012	0.0002)														
(-0.00052	-0.00119	0.0002)														
(-0.00032	-0.00118	0.0002)														
(-0.00013	-0.00117	0.0002)														
(0.00006	-0.00116	0.0002)														
(0.00026	-0.00115	0.0002)														
(0.00045	-0.00114	0.0002)														
(0.00064	-0.00113	0.0002)														
(0.00083	-0.00112	0.0002)														
(0.00103	-0.00111	0.0002)														
(0.00122	-0.0011	0.0002)														
(0.00141	-0.00109	0.0002)														
(-0.00128	-0.00142	0.0002)														
(-0.00109	-0.00141	0.0002)														
(-0.00089	-0.0014	0.0002)														
(-0.0007	-0.00139	0.0002)														
(-0.00051	-0.00138	0.0002)														
(-0.00031	-0.00137	0.0002)														
(-0.00012	-0.00136	0.0002)														
(0.00007	-0.00135	0.0002)														
(0.00027	-0.00134	0.0002)														
(0.00046	-0.00133	0.0002)														
(0.00065	-0.00132	0.0002)														
(0.00084	-0.00131	0.0002)														
(0.00104	-0.0013	0.0002)														
(0.00123	-0.00129	0.0002)														
(0.00142	-0.00128	0.0002)														
(-0.00142	0.00128	0.0003)														
(-0.00123	0.00129	0.0003)														
(-0.00104	0.0013	0.0003)														
(-0.00084	0.00131	0.0003)														
(-0.00065	0.00132	0.0003)														
(-0.00046	0.00133	0.0003)														
(-0.00026	0.00134	0.0003)														
(-0.00007	0.00135	0.0003)														
(0.00012	0.00136	0.0003)														
(0.00032	0.00137	0.0003)														
(0.00051	0.00138	0.0003)														
(0.0007	0.00139	0.0003)														
(0.00089	0.0014	0.0003)														
(0.00109	0.00141	0.0003)														
(0.00128	0.00142	0.0003)														
(-0.00141	0.00109	0.0003)														
(-0.00122	0.0011	0.0003)														
(-0.00103	0.00111	0.0003)														
(-0.00083	0.00112	0.0003)														
(-0.00064	0.00113	0.0003)														
(-0.00045	0.00114	0.0003)														
(-0.00025	0.00115	0.0003)														
(-0.00006	0.00116	0.0003)														
(0.00013	0.00117	0.0003)														
(0.00033	0.00118	0.0003)														
(0.00052	0.00119	0.0003)														
(0.00071	0.0012	0.0003)														
(0.0009	0.00121	0.0003)														
(0.0011	0.00122	0.0003)														
(0.00129	0.00123	0.0003)														
(-0.0014	0.00089	0.0003)														
(-0.00121	0.0009	0.0003)														
(-0.00102	0.00091	0.0003)														
(-0.00082	0.00092	0.0003)														
(-0.00063	0.00093	0.0003)														
(-0.00044	0.00095	0.0003)														
(-0.00024	0.00096	0.0003)														
(-0.00005	0.00097	0.0003)														
(0.00014	0.00098	0.0003)														
(0.00034	0.00099	0.0003)														
(0.00053	0.001	0.0003)														
(0.00072	0.00101	0.0003)														
(0.00091	0.00102	0.0003)														
(0.00111	0.00103	0.0003)														
(0.0013	0.00104	0.0003)														
(-0.00139	0.0007	0.0003)														
(-0.0012	0.00071	0.0003)														
(-0.00101	0.00072	0.0003)														
(-0.00081	0.00073	0.0003)														
(-0.00062	0.00074	0.0003)														
(-0.00043	0.00075	0.0003)														
(-0.00023	0.00076	0.0003)														
(-0.00004	0.00077	0.0003)														
(0.00015	0.00078	0.0003)														
(0.00035	0.00079	0.0003)														
(0.00054	0.0008	0.0003)														
(0.00073	0.00081	0.0003)														
(0.00092	0.00082	0.0003)														
(0.00112	0.00083	0.0003)														
(0.00131	0.00084	0.0003)														
(-0.00138	0.00051	0.0003)														
(-0.00119	0.00052	0.0003)														
(-0.001	0.00053	0.0003)														
(-0.0008	0.00054	0.0003)														
(-0.00061	0.00055	0.0003)														
(-0.00042	0.00056	0.0003)														
(-0.00022	0.00057	0.0003)														
(-0.00003	0.00058	0.0003)														
(0.00016	0.00059	0.0003)														
(0.00036	0.0006	0.0003)														
(0.00055	0.00061	0.0003)														
(0.00074	0.00062	0.0003)														
(0.00093	0.00063	0.0003)														
(0.00113	0.00064	0.0003)														
(0.00132	0.00065	0.0003)														
(-0.00137	0.00032	0.0003)														
(-0.00118	0.00033	0.0003)														
(-0.00099	0.00034	0.0003)														
(-0.00079	0.00035	0.0003)														
(-0.0006	0.00036	0.0003)														
(-0.00041	0.00037	0.0003)														
(-0.00021	0.00038	0.0003)														
(-0.00002	0.00039	0.0003)														
(0.00017	0.0004	0.0003)														
(0.00037	0.00041	0.0003)														
(0.00056	0.00042	0.0003)														
(0.00075	0.00043	0.0003)														
(0.00095	0.00044	0.0003)														
(0.00114	0.00045	0.0003)														
(0.00133	0.00046	0.0003)														
(-0.00136	0.00012	0.0003)														
(-0.00117	0.00013	0.0003)														
(-0.00098	0.00014	0.0003)														
(-0.00078	0.00015	0.0003)														
(-0.00059	0.00016	0.0003)														
(-0.0004	0.00017	0.0003)														
(-0.0002	0.00018	0.0003)														
(-0.00001	0.00019	0.0003)														
(0.00018	0.0002	0.0003)														
(0.00038	0.00021	0.0003)														
(0.00057	0.00022	0.0003)														
(0.00076	0.00023	0.0003)														
(0.00096	0.00024	0.0003)														
(0.00115	0.00025	0.0003)														
(0.00134	0.00026	0.0003)														
(-0.00135	-0.00007	0.0003)														
(-0.00116	-0.00006	0.0003)														
(-0.00097	-0.00005	0.0003)														
(-0.00077	-0.00004	0.0003)														
(-0.00058	-0.00003	0.0003)														
(-0.00039	-0.00002	0.0003)														
(-0.00019	-0.00001	0.0003)														
(0	0	0.0003)														
(0.00019	0.00001	0.0003)														
(0.00039	0.00002	0.0003)														
(0.00058	0.00003	0.0003)														
(0.00077	0.00004	0.0003)														
(0.00097	0.00005	0.0003)														
(0.00116	0.00006	0.0003)														
(0.00135	0.00007	0.0003)														
(-0.00134	-0.00026	0.0003)														
(-0.00115	-0.00025	0.0003)														
(-0.00096	-0.00024	0.0003)														
(-0.00076	-0.00023	0.0003)														
(-0.00057	-0.00022	0.0003)														
(-0.00038	-0.00021	0.0003)														
(-0.00018	-0.0002	0.0003)														
(0.00001	-0.00019	0.0003)														
(0.0002	-0.00018	0.0003)														
(0.0004	-0.00017	0.0003)														
(0.00059	-0.00016	0.0003)														
(0.00078	-0.00015	0.0003)														
(0.00098	-0.00014	0.0003)														
(0.00117	-0.00013	0.0003)														
(0.00136	-0.00012	0.0003)														
(-0.00133	-0.00046	0.0003)														
(-0.00114	-0.00045	0.0003)														
(-0.00095	-0.00044	0.0003)														
(-0.00075	-0.00043	0.0003)														
(-0.00056	-0.00042	0.0003)														
(-0.00037	-0.00041	0.0003)														
(-0.00017	-0.0004	0.0003)														
(0.00002	-0.00039	0.0003)														
(0.00021	-0.00038	0.0003)														
(0.00041	-0.00037	0.0003)														
(0.0006	-0.00036	0.0003)														
(0.00079	-0.00035	0.0003)														
(0.00099	-0.00034	0.0003)														
(0.00118	-0.00033	0.0003)														
(0.00137	-0.00032	0.0003)														
(-0.00132	-0.00065	0.0003)														
(-0.00113	-0.00064	0.0003)														
(-0.00093	-0.00063	0.0003)														
(-0.00074	-0.00062	0.0003)														
(-0.00055	-0.00061	0.0003)														
(-0.00036	-0.0006	0.0003)														
(-0.00016	-0.00059	0.0003)														
(0.00003	-0.00058	0.0003)														
(0.00022	-0.00057	0.0003)														
(0.00042	-0.00056	0.0003)														
(0.00061	-0.00055	0.0003)														
(0.0008	-0.00054	0.0003)														
(0.001	-0.00053	0.0003)														
(0.00119	-0.00052	0.0003)														
(0.00138	-0.00051	0.0003)														
(-0.00131	-0.00084	0.0003)														
(-0.00112	-0.00083	0.0003)														
(-0.00092	-0.00082	0.0003)														
(-0.00073	-0.00081	0.0003)														
(-0.00054	-0.0008	0.0003)														
(-0.00035	-0.00079	0.0003)														
(-0.00015	-0.00078	0.0003)														
(0.00004	-0.00077	0.0003)														
(0.00023	-0.00076	0.0003)														
(0.00043	-0.00075	0.0003)														
(0.00062	-0.00074	0.0003)														
(0.00081	-0.00073	0.0003)														
(0.00101	-0.00072	0.0003)														
(0.0012	-0.00071	0.0003)														
(0.00139	-0.0007	0.0003)														
(-0.0013	-0.00104	0.0003)														
(-0.00111	-0.00103	0.0003)														
(-0.00091	-0.00102	0.0003)														
(-0.00072	-0.00101	0.0003)														
(-0.00053	-0.001	0.0003)														
(-0.00034	-0.00099	0.0003)														
(-0.00014	-0.00098	0.0003)														
(0.00005	-0.00097	0.0003)														
(0.00024	-0.00096	0.0003)														
(0.00044	-0.00095	0.0003)														
(0.00063	-0.00093	0.0003)														
(0.00082	-0.00092	0.0003)														
(0.00102	-0.00091	0.0003)														
(0.00121	-0.0009	0.0003)														
(0.0014	-0.00089	0.0003)														
(-0.00129	-0.00123	0.0003)														
(-0.0011	-0.00122	0.0003)														
(-0.0009	-0.00121	0.0003)														
(-0.00071	-0.0012	0.0003)														
(-0.00052	-0.00119	0.0003)														
(-0.00033	-0.00118	0.0003)														
(-0.00013	-0.00117	0.0003)														
(0.00006	-0.00116	0.0003)														
(0.00025	-0.00115	0.0003)														
(0.00045	-0.00114	0.0003)														
(0.00064	-0.00113	0.0003)														
(0.00083	-0.00112	0.0003)														
(0.00103	-0.00111	0.0003)														
(0.00122	-0.0011	0.0003)														
(0.00141	-0.00109	0.0003)														
(-0.00128	-0.00142	0.0003)														
(-0.00109	-0.00141	0.0003)														
(-0.00089	-0.0014	0.0003)														
(-0.0007	-0.00139	0.0003)														
(-0.00051	-0.00138	0.0003)														
(-0.00032	-0.00137	0.0003)														
(-0.00012	-0.00136	0.0003)														
(0.00007	-0.00135	0.0003)														
(0.00026	-0.00134	0.0003)														
(0.00046	-0.00133	0.0003)														
(0.00065	-0.00132	0.0003)														
(0.00084	-0.00131	0.0003)														
(0.00104	-0.0013	0.0003)														
(0.00123	-0.00129	0.0003)														
(0.00142	-0.00128	0.0003)														
(-0.00142	0.00128	0.0004)														
(-0.00123	0.00129	0.0004)														
(-0.00104	0.0013	0.0004)														
(-0.00084	0.00131	0.0004)														
(-0.00065	0.00132	0.0004)														
(-0.00046	0.00133	0.0004)														
(-0.00026	0.00134	0.0004)														
(-0.00007	0.00135	0.0004)														
(0.00012	0.00136	0.0004)														
(0.00032	0.00137	0.0004)														
(0.00051	0.00138	0.0004)														
(0.0007	0.00139	0.0004)														
(0.0009	0.0014	0.0004)														
(0.00109	0.00141	0.0004)														
(0.00128	0.00142	0.0004)														
(-0.00141	0.00109	0.0004)														
(-0.00122	0.0011	0.0004)														
(-0.00103	0.00111	0.0004)														
(-0.00083	0.00112	0.0004)														
(-0.00064	0.00113	0.0004)														
(-0.00045	0.00114	0.0004)														
(-0.00025	0.00115	0.0004)														
(-0.00006	0.00116	0.0004)														
(0.00013	0.00117	0.0004)														
(0.00033	0.00118	0.0004)														
(0.00052	0.00119	0.0004)														
(0.00071	0.0012	0.0004)														
(0.00091	0.00121	0.0004)														
(0.0011	0.00122	0.0004)														
(0.00129	0.00123	0.0004)														
(-0.0014	0.0009	0.0004)														